{
    "\u043d\u0430\u0437\u0432\u0430\u043d\u0438\u0435": [
        "\u0413\u0438\u0434\u0440\u043e\u0433\u0435\u043d, 1H"
    ],
    "Appearance": [
        "colorless gas"
    ],
    "Standard atomic weight.mw-parser-output.nobold{font-weight:normal} Ar, std(H)": [
        "[1.00784, 1.00811] conventional: 1.008"
    ],
    "Atomic number (Z)": [
        "1"
    ],
    "\u0413\u0440\u0443\u043f\u043f\u0430": [
        "1: H \u0438 \u0430\u043b\u043a\u0430\u043b\u0438\u0435\u0432\u044b\u0435 \u043c\u0435\u0442\u0430\u043b\u043b\u044b"
    ],
    "Period": [
        "period 1"
    ],
    "\u0411\u043b\u043e\u043a": [
        "s-block"
    ],
    "\u041a\u0430\u0442\u0435\u0433\u043e\u0440\u0438\u044f \u044d\u043b\u0435\u043c\u0435\u043d\u0442\u043e\u0432": [
        "\u0420\u0435\u0430\u043a\u0442\u0438\u0432\u043d\u044b\u0439 \u043d\u0435\u043c\u0435\u0442\u0430\u043b\u043b"
    ],
    "\u041a\u043e\u043d\u0444\u0438\u0433\u0443\u0440\u0430\u0446\u0438\u044f \u044d\u043b\u0435\u043a\u0442\u0440\u043e\u043d\u043e\u0432": [
        "1s 1"
    ],
    "\u042d\u043b\u0435\u043a\u0442\u0440\u043e\u043d\u044b \u043d\u0430 \u043e\u0431\u043e\u043b\u043e\u0447\u043a\u0443": [
        "1"
    ],
    "\u0424\u0430\u0437\u0430 \u043d\u0430 STP": [
        "\u0433\u0430\u0437"
    ],
    "Melting point": [
        "(H 2 ) 13.99 K (\u2212259.16 \u00b0C, \u2212434.49 \u00b0F)"
    ],
    "Boiling point": [
        "(H 2 ) 20.271 K (\u2212252.879 \u00b0C, \u2212423.182 \u00b0F)"
    ],
    "\u043f\u043b\u043e\u0442\u043d\u043e\u0441\u0442\u044c (\u043f\u0440\u0438 STP)": [
        "0.08988 g/L"
    ],
    "\u043f\u0440\u0438 \u0436\u0438\u0434\u043a\u043e\u0441\u0442\u0438 (\u0432 \u043c.\u043f.)": [
        "0.07 g/cm 3 (solid: 0.0763 g/cm 3 )"
    ],
    "\u043f\u0440\u0438 \u0436\u0438\u0434\u043a\u043e\u0441\u0442\u0438 (\u0432 \u0431.\u043f.)": [
        "0.07099 g/cm 3"
    ],
    "\u0422\u0440\u043e\u0439\u043d\u0430\u044f \u0442\u043e\u0447\u043a\u0430": [
        "13.8033 K, 7.041 kPa"
    ],
    "Critical point": [
        "32.938 K, 1.2858 MPa"
    ],
    "\u0412\u044b\u0441\u043e\u0442\u0430 \u0441\u0438\u043d\u0442\u0435\u0437\u0430": [
        "(H 2 ) 0.117 kJ/mol"
    ],
    "\u0412\u044b\u0441\u043e\u0442\u0430 \u043f\u0430\u0440\u0438\u0440\u043e\u0432\u043a\u0438": [
        "(H 2 ) 0.904 kJ/mol"
    ],
    "\u041c\u043e\u043b\u044f\u0440\u043d\u0430\u044f \u0442\u0435\u043f\u043b\u043e\u0432\u0430\u044f \u043c\u043e\u0449\u043d\u043e\u0441\u0442\u044c": [
        "(H 2 ) 28.836 J/(mol\u00b7K)"
    ],
    "\u041e\u043a\u0441\u0438\u0434\u0438\u0440\u0443\u044e\u0449\u0438\u0435 \u0441\u043e\u0441\u0442\u043e\u044f\u043d\u0438\u044f": [
        "\u22121, +1 (\u0430\u043c\u0444\u043e\u0442\u0435\u0440\u043d\u044b\u0439 \u043e\u043a\u0441\u0438\u0434)"
    ],
    "\u042d\u043b\u0435\u043a\u0442\u0440\u043e\u043d\u0435\u0433\u0430\u0442\u0438\u0432\u043d\u043e\u0441\u0442\u044c": [
        "\u0421\u043a\u0430\u043b\u0430 \u043f\u043e\u0441\u0442\u0440\u043e\u0435\u043d\u0438\u044f: 2.20"
    ],
    "\u042d\u043d\u0435\u0440\u0433\u0438\u0438 \u0438\u043e\u043d\u0438\u0437\u0430\u0446\u0438\u0438": [
        "1st: 1312.0 kJ/mol"
    ],
    "\u041a\u043e\u0432\u0430\u043b\u0435\u043d\u0442\u043d\u044b\u0439 \u0440\u0430\u0434\u0438\u0443\u0441": [
        "31\u00b15 pm"
    ],
    "Van der Waals \u0440\u0430\u0434\u0438\u0443\u0441": [
        "120 pm"
    ],
    "\u041f\u0440\u0438\u0440\u043e\u0434\u043d\u043e\u0435 \u043f\u0440\u043e\u0438\u0441\u0445\u043e\u0436\u0434\u0435\u043d\u0438\u0435": [
        "\u043f\u0435\u0440\u0432\u043e\u0431\u044b\u0442\u0438\u0435"
    ],
    "\u0421\u043a\u043e\u0440\u043e\u0441\u0442\u044c \u0437\u0432\u0443\u043a\u0430": [
        "1310 \u043c/\u0441 (\u0433\u0430\u0437, 27 \u00b0C)"
    ],
    "\u0442\u0435\u043f\u043b\u043e\u043f\u0440\u043e\u0432\u043e\u0434\u043d\u043e\u0441\u0442\u044c": [
        "0,1805 W/(m\u00b7K)"
    ],
    "\u041c\u0430\u0433\u043d\u0438\u0442\u043d\u043e\u0435 \u0440\u0430\u0441\u043f\u043e\u0440\u044f\u0436\u0435\u043d\u0438\u0435": [
        "\u0434\u0438\u0430\u043c\u0430\u0433\u043d\u0438\u0442\u043d\u043e\u0435"
    ],
    "\u041c\u0430\u0433\u043d\u0438\u0442\u043d\u0430\u044f \u0447\u0443\u0432\u0441\u0442\u0432\u0438\u0442\u0435\u043b\u044c\u043d\u043e\u0441\u0442\u044c": [
        "\u22123.98\u00b710 \u22126 cm 3 /mol (298 K)"
    ],
    "\u041d\u043e\u043c\u0435\u0440 CAS": [
        "12385-13-6, 1333-74-0 (H 2 )"
    ],
    "Discovery": [
        "Henry Cavendish (1766)"
    ],
    "\u041d\u0430\u0437\u0432\u0430\u043d\u0438\u0435": [
        "Antoine Lavoisier (1783)"
    ]
}